 Gaussian 16, Revision C.01,
 Gaussian 16:  ES64L-G16RevC.01  3-Jul-2019

 --------------------------------------
 #p b3lyp em=gd3bj 6-31g(d) scan nosymm
 --------------------------------------

 -------------------
 Title Card Required
 -------------------
 Symbolic Z-matrix:
 Charge =  0 Multiplicity = 1

 SCF Done:  E(RB3LYP) =  -115.717509364     A.U. after   11 cycles

 Alpha  occ. eigenvalues --  -19.14013 -10.22469  -1.01048  -0.67826  -0.50232
 Alpha  occ. eigenvalues --   -0.43400  -0.41918  -0.33026  -0.26454
 Alpha virt. eigenvalues --    0.07525   0.13074   0.16671   0.17517   0.20590
 Alpha virt. eigenvalues --    0.53423   0.56725   0.57743   0.78634   0.84878
 Alpha virt. eigenvalues --    0.86912   0.90173   0.95381   0.97726   1.02227

 Mulliken charges:
               1
     1  C   -0.205097
     2  H    0.161381
     3  H    0.129240
     4  H    0.129241
     5  O   -0.605220
     6  H    0.390455
 Sum of Mulliken charges =  -0.00000

 Dipole moment (field-independent basis, Debye):
    X=              0.6634    Y=             -1.0844    Z=             -1.1198  Tot=              1.6941
 Quadrupole moment (field-independent basis, Debye-Ang):
   XX=            -14.1451   YY=            -15.0862   ZZ=             -9.9815
   XY=              0.9199   XZ=              0.9179   YZ=             -1.5006

 SCF Done:  E(RB3LYP) =  -115.717355837     A.U. after   11 cycles
 SCF Done:  E(RB3LYP) =  -115.716925497     A.U. after   11 cycles
 SCF Done:  E(RB3LYP) =  -115.716303660     A.U. after   11 cycles
 SCF Done:  E(RB3LYP) =  -115.715613235     A.U. after   11 cycles
 SCF Done:  E(RB3LYP) =  -115.714988007     A.U. after   11 cycles
 SCF Done:  E(RB3LYP) =  -115.714539567     A.U. after   11 cycles
 SCF Done:  E(RB3LYP) =  -115.714329348     A.U. after   11 cycles
 SCF Done:  E(RB3LYP) =  -115.714352790     A.U. after   11 cycles
 SCF Done:  E(RB3LYP) =  -115.714544250     A.U. after   11 cycles
 SCF Done:  E(RB3LYP) =  -115.714799276     A.U. after   11 cycles
 SCF Done:  E(RB3LYP) =  -115.715006187     A.U. after   11 cycles
 SCF Done:  E(RB3LYP) =  -115.715075446     A.U. after   11 cycles
 SCF Done:  E(RB3LYP) =  -115.714961831     A.U. after   11 cycles
 SCF Done:  E(RB3LYP) =  -115.714675422     A.U. after   11 cycles
 SCF Done:  E(RB3LYP) =  -115.714279612     A.U. after   11 cycles
 SCF Done:  E(RB3LYP) =  -115.713875621     A.U. after   11 cycles
 SCF Done:  E(RB3LYP) =  -115.713574608     A.U. after   11 cycles

                         Z-Matrix orientation:
 ---------------------------------------------------------------------
 Center     Atomic      Atomic             Coordinates (Angstroms)
 Number     Number       Type             X           Y           Z
 ---------------------------------------------------------------------
      1          6           0        0.000000    0.000000    0.000000
      2          1           0        0.000000    0.000000    1.093379
      3          1           0        1.047005    0.000000   -0.341396
      4          1           0       -0.476809   -0.932133   -0.341396
      5          8           0       -0.709066    1.159152   -0.407588
      6          1           0       -0.994398    1.625601    0.392058
 ---------------------------------------------------------------------

 SCF Done:  E(RB3LYP) =  -115.713463310     A.U. after   11 cycles
 Normal termination of Gaussian 16 at Wed Jan 10 16:36:13 2024.
